-- File compressed with eclcompress at 2019-11-07 12:18:16.515120
-- Compression ratio 2.0 (higher is better, 1 is no compression)

NOECHO
-- =============================================================================
--
-- Exported from Reek_base_sim
--
-- Exported by user havb from RMS10.1 at 2018-02-12 12:40:17
--
-- =============================================================================
MAPUNITS
'METRES '
/
MAPAXES
456510.608 5938932.679 456510.608 5926880.031 467215.953
5926880.031
/
GRIDUNIT
'METRES ' ' '
/
SPECGRID
40 64 14 1 F
/
GDORIENT
INC
INC INC DOWN RIGHT 
/
COORD
0.498 8808.059 1726.415 0.000 8807.765
1767.261 140.722 8889.016 1727.762 140.559
8888.920 1770.034 280.900 8969.947 1730.138
281.202 8970.121 1772.180 421.018 9050.844
1731.685 421.904 9051.355 1771.370 561.049
9131.690 1733.639 562.764 9132.681 1774.632
700.867 9212.414 1735.553 703.800 9214.109
1779.411 840.704 9293.150 1740.012 844.902
9295.574 1783.691 980.764 9374.012 1745.366
986.255 9377.185 1788.508 1120.267 9454.556
1743.953 1127.313 9458.625 1787.461 1259.452
9534.913 1739.802 1268.031 9539.869 1784.121
1398.682 9615.297 1736.620 1409.128 9621.331
1781.084 1537.660 9695.534 1733.786 1549.318
9702.271 1775.020 1677.083 9776.030 1733.599
1690.450 9783.753 1772.748 1816.363 9856.442
1733.983 1828.821 9863.640 1764.490 1957.187
9937.747 1738.906 1970.442 9945.406 1766.402
2097.067 10018.506 1742.322 2113.166 10027.809
1770.851 2235.907 10098.666 1742.344 2253.300
10108.716 1770.833 2374.442 10178.648 1739.725
2395.010 10190.532 1774.339 2512.826 10258.543
1736.309 2536.522 10272.234 1778.905 2654.100
10340.109 1741.199 2680.192 10355.184 1789.513
2795.228 10421.590 1749.553 2824.437 10438.465
1801.527 2935.282 10502.450 1755.989 2965.954
10520.167 1805.664 3074.160 10582.633 1758.572
3106.318 10601.206 1806.718 3213.242 10662.933
1759.722 3244.797 10681.156 1807.256 3353.598
10743.969 1761.654 3384.849 10762.013 1808.901
3495.714 10826.021 1764.077 3523.940 10842.317
1804.424 3637.536 10907.902 1765.022 3661.098
10921.503 1798.092 3775.701 10987.673 1763.554
3802.273 11003.011 1801.510 3913.590 11067.287
1766.232 3942.827 11084.158 1810.262 4050.319
11146.228 1772.067 4080.960 11163.909 1821.193
4188.532 11226.026 1784.403 4219.138 11243.685
1835.753 4331.497 11308.566 1808.837 4363.994
11327.316 1863.260 4474.829 11391.318 1832.076
4508.892 11410.972 1889.847 4611.350 11470.139
1840.980 4646.638 11490.501 1902.770 4758.443
11555.061 1869.229 4788.628 11572.480 1921.734
4906.582 11640.587 1899.072 4930.539 11654.413
1938.873 5046.763 11721.521 1910.289 5068.850
11734.268 1945.284 5184.151 11800.842 1910.659
5203.217 11811.846 1942.257 5325.365 11882.372
1914.035 5340.974 11891.381 1943.744 5466.997
11964.141 1917.903 5481.878 11972.732 1951.063
5607.010 12045.000 1920.227 5620.332 12052.648
1953.361 79.823 8670.406 1725.650 79.623
8670.164 1764.855 220.014 8751.369 1726.889
220.256 8751.321 1768.064 360.122 8832.301
1727.127 360.938 8832.507 1767.364 500.104
8913.179 1727.469 501.613 8913.693 1765.798
640.072 8994.041 1730.794 642.458 8994.942
1768.522 779.697 9074.765 1732.923 783.626
9076.328 1774.405 919.523 9155.560 1738.613
924.945 9157.785 1779.657 1059.621 9236.469
1744.403 1067.078 9239.593 1787.477 1198.654
9316.928 1742.103 1207.851 9320.837 1784.868
1337.253 9397.193 1737.447 1349.245 9402.345
1784.687 1476.084 9477.550 1734.251 1490.681
9483.876 1782.492 1615.663 9558.229 1734.097
1631.504 9565.140 1778.261 1755.370 9638.964
1734.577 1773.061 9646.727 1776.490 1893.656
9719.071 1732.842 1910.643 9726.565 1767.609
2034.983 9800.518 1738.298 2050.292 9807.310
1765.701 2174.124 9880.988 1739.928 2194.482
9890.089 1771.789 2311.866 9960.810 1738.186
2333.963 9970.787 1769.726 2450.427 10040.970
1735.667 2476.109 10052.710 1772.229 2590.562
10121.819 1734.917 2617.258 10134.214 1774.562
2731.122 10202.833 1737.688 2762.395 10217.650
1785.036 2871.477 10283.708 1743.402 2909.985
10302.420 1798.766 3012.483 10364.867 1750.293
3048.164 10382.723 1797.901 3151.771 10445.117
1753.459 3188.972 10464.346 1800.985 3291.172
10525.358 1755.280 3327.578 10544.823 1803.159
3431.393 10606.005 1757.147 3467.600 10626.028
1805.989 3574.799 10688.468 1761.301 3606.254
10706.437 1802.116 3717.089 10770.400 1762.810
3741.774 10784.933 1793.909 3852.243 10848.104
1758.196 3880.821 10865.392 1794.763 3990.231
10927.434 1762.241 4023.953 10948.330 1807.999
4126.734 11005.809 1769.771 4157.997 11025.587
1815.328 4263.312 11084.266 1781.441 4296.186
11105.314 1832.234 4409.878 11169.217 1811.479
4441.893 11189.809 1862.571 4551.998 11251.371
1833.962 4586.116 11273.320 1889.906 4687.783
11329.498 1843.278 4724.632 11353.110 1905.065
4838.780 11417.369 1877.328 4868.333 11436.173
1925.642 4991.853 11506.454 1912.150 5013.833
11520.323 1945.708 5125.922 11583.522 1912.810
5151.243 11599.369 1949.487 5258.605 11659.791
1906.099 5280.031 11673.104 1938.673 5401.199
11742.238 1910.613 5420.278 11754.027 1943.883
5543.353 11824.389 1914.768 5563.242 11836.633
1954.890 5683.576 11905.364 1917.705 5701.266
11916.185 1956.092 159.157 8532.750 1723.811
159.250 8532.598 1757.162 299.298 8613.714
1724.483 299.882 8613.734 1759.260 439.255
8694.632 1722.955 440.394 8694.853 1755.446
579.146 8775.514 1724.948 581.405 8776.082
1763.277 718.645 8856.279 1724.630 722.312
8857.305 1766.116 858.548 8937.149 1731.674
864.608 8938.946 1779.366 998.133 9017.925
1736.498 1005.369 9020.148 1777.941 1137.756
9098.710 1740.527 1147.832 9101.880 1784.818
1277.315 9179.471 1742.239 1290.422 9183.668
1788.821 1416.532 9260.121 1741.208 1432.856
9265.419 1790.112 1556.735 9341.092 1742.073
1573.239 9346.507 1784.091 1695.955 9421.739
1740.244 1715.902 9428.344 1783.851 1834.916
9502.297 1738.651 1857.125 9509.709 1781.061
1972.439 9582.366 1735.861 1994.925 9589.929
1774.300 2110.726 9662.675 1735.953 2128.969
9668.869 1764.187 2247.086 9742.294 1733.555
2270.966 9750.510 1766.558 2386.569 9822.945
1734.301 2416.276 9833.350 1770.703 2525.532
9903.376 1732.320 2559.337 9915.491 1771.671
2670.755 9986.043 1737.006 2707.135 9999.491
1779.663 2809.584 10066.321 1736.979 2847.749
10081.023 1781.642 2945.036 10145.089 1735.511
2985.082 10161.341 1780.436 3086.677 10226.176
1741.446 3130.254 10244.994 1788.479 3227.383
10306.787 1745.864 3270.202 10326.598 1791.818
3371.706 10389.125 1753.268 3414.711 10410.502
1801.715 3513.450 10470.327 1757.336 3554.968
10492.476 1806.207 3653.737 10550.797 1758.159
3690.048 10571.499 1800.114 3795.214 10632.019
1759.543 3831.324 10653.873 1800.012 3932.855
10710.924 1759.544 3962.415 10729.774 1793.208
4069.920 10789.337 1764.091 4104.717 10812.594
1806.265 4202.560 10864.557 1768.758 4235.413
10887.463 1811.478 4354.920 10953.810 1804.206
4395.115 10982.428 1860.442 4498.924 11037.424
1831.795 4531.154 11060.426 1879.953 4630.321
11112.084 1839.850 4666.078 11137.500 1895.604
4771.289 11193.608 1859.303 4803.783 11216.479
1910.552 4928.390 11286.349 1901.000 4952.021
11302.757 1936.320 5069.500 11367.821 1914.185
5092.891 11383.813 1946.285 5198.092 11440.867
1906.926 5230.142 11462.447 1948.781 5334.764
11519.513 1905.675 5366.182 11540.374 1948.988
5478.179 11602.635 1910.918 5506.380 11621.140
1955.331 5621.464 11685.617 1917.014 5645.459
11701.211 1960.262 5761.380 11766.399 1919.297
5783.670 11780.747 1961.357 238.478 8395.096
1720.417 238.787 8395.027 1747.558 378.547
8476.057 1721.393 379.315 8476.123 1747.848
518.502 8556.990 1722.923 519.989 8557.238
1751.618 658.026 8637.832 1721.600 660.779
8638.384 1755.369 797.529 8718.653 1724.172
801.818 8719.590 1760.508 937.244 8799.517
1730.092 943.694 8800.996 1769.136 1076.201
8880.206 1732.703 1086.821 8882.710 1780.135
1216.447 8961.197 1739.968 1228.388 8964.070
1781.084 1354.064 9041.551 1736.953 1371.963
9045.923 1786.616 1493.523 9122.349 1738.215
1514.878 9127.628 1787.832 1632.854 9203.113
1737.924 1654.862 9208.611 1781.726 1773.829
9284.288 1740.226 1795.525 9289.760 1777.922
1915.803 9365.722 1744.034 1939.826 9371.835
1781.363 2051.750 9445.615 1739.648 2076.037
9451.856 1774.449 2186.976 9525.292 1735.718
2209.689 9531.203 1766.225 2322.293 9604.938
1732.109 2350.793 9612.490 1767.016 2462.947
9685.951 1733.530 2498.721 9695.672 1770.843
2603.480 9766.902 1732.640 2648.805 9779.641
1774.994 2751.671 9850.047 1738.294 2796.244
9863.150 1778.144 2886.914 9929.322 1734.369
2928.298 9942.267 1770.690 3014.984 10005.808
1726.157 3062.099 10021.771 1766.745 3158.985
10087.246 1732.069 3211.983 10106.990 1777.927
3299.420 10167.243 1735.234 3351.149 10188.672
1781.555 3443.786 10248.856 1741.404 3491.028
10270.713 1787.045 3588.647 10331.010 1748.279
3630.909 10352.802 1791.445 3730.963 10412.170
1751.845 3774.342 10436.904 1796.147 3874.891
10494.598 1756.990 3919.693 10522.497 1802.178
4012.199 10573.032 1758.389 4052.147 10599.844
1799.584 4148.592 10650.632 1763.927 4188.439
10679.210 1807.692 4285.559 10728.452 1776.341
4323.781 10757.546 1820.841 4442.121 10821.848
1817.368 4489.089 10858.646 1876.407 4578.966
10900.190 1836.995 4619.487 10931.910 1893.638
4708.061 10972.500 1844.672 4745.231 11001.326
1899.375 4860.485 11062.840 1883.011 4890.361
11085.598 1926.539 5012.503 11152.511 1914.190
5036.381 11170.333 1946.391 5144.506 11227.203
1913.808 5169.533 11245.502 1944.458 5272.329
11299.176 1905.722 5305.970 11323.289 1945.192
5410.902 11379.074 1905.940 5448.740 11405.685
1953.320 5555.200 11462.973 1911.881 5590.133
11487.122 1961.592 5699.597 11546.843 1919.499
5729.542 11567.236 1967.468 5839.727 11627.767
1921.867 5867.938 11646.728 1968.237 317.755
8257.443 1716.109 318.415 8257.420 1749.135
457.681 8338.392 1716.410 459.112 8338.536
1750.876 597.591 8419.331 1720.155 599.804
8419.652 1751.801 737.194 8500.221 1722.211
740.828 8500.820 1756.300 876.818 8581.112
1726.440 882.380 8582.085 1763.138 1015.510
8661.836 1726.946 1023.577 8663.293 1765.665
1154.431 8742.595 1730.641 1166.350 8744.791
1773.548 1293.394 8823.362 1734.310 1307.818
8826.055 1774.578 1431.130 8903.896 1733.963
1450.608 8907.569 1777.620 1569.755 8984.590
1734.620 1591.093 8988.651 1774.501 1708.250
9065.253 1733.900 1733.818 9070.163 1775.126
1848.119 9146.176 1734.965 1873.118 9151.020
1770.663 1989.285 9227.349 1738.104 2019.227
9233.211 1776.940 2128.192 9308.073 1738.969
2160.190 9314.414 1777.835 2268.190 9389.002
1741.319 2303.128 9396.041 1781.798 2406.131
9469.501 1740.178 2442.001 9476.889 1778.469
2542.075 9549.537 1734.578 2576.579 9556.869
1765.070 2684.257 9630.853 1733.452 2733.029
9641.681 1770.234 2828.067 9712.552 1733.720
2874.983 9723.559 1765.505 2961.235 9791.544
1728.558 3019.419 9806.355 1766.772 3091.807
9869.224 1723.118 3149.824 9885.719 1761.860
3233.482 9949.517 1725.596 3303.605 9972.158
1774.347 3376.722 10030.158 1729.537 3438.565
10053.136 1775.829 3516.237 10109.186 1730.466
3566.543 10130.832 1772.220 3658.998 10189.461
1734.389 3699.832 10209.761 1770.707 3806.353
10272.562 1742.403 3856.647 10301.149 1788.343
3950.853 10354.887 1748.837 4008.492 10391.686
1802.450 4087.909 10432.681 1751.458 4141.154
10470.143 1802.637 4231.511 10515.259 1765.488
4276.357 10549.526 1811.918 4372.574 10596.362
1784.222 4419.553 10634.751 1836.865 4509.662
10674.530 1803.241 4575.281 10730.317 1881.438
4662.711 10766.591 1843.907 4700.993 10799.295
1895.276 4800.971 10845.809 1867.381 4838.448
10877.332 1919.519 4955.912 10938.554 1909.414
4986.435 10963.457 1950.304 5089.839 11013.927
1915.870 5122.369 11039.681 1955.437 5215.442
11083.227 1909.220 5248.804 11108.957 1945.837
5346.953 11157.580 1905.767 5383.133 11184.835
1944.112 5492.450 11242.566 1912.744 5532.575
11272.137 1958.769 5635.390 11325.570 1917.130
5674.913 11354.087 1968.270 5776.206 11407.003
1919.497 5813.192 11433.184 1972.020 5917.766
11488.942 1923.415 5951.811 11512.645 1972.360
397.036 8119.790 1713.323 398.044 8119.820
1749.898 536.902 8200.744 1714.745 538.869
8200.940 1751.880 676.820 8281.702 1719.736
679.823 8282.079 1753.922 816.407 8362.621
1722.559 821.132 8363.265 1758.084 955.910
8443.529 1726.365 963.934 8444.664 1769.130
1094.719 8524.339 1728.146 1104.617 8525.765
1767.101 1233.482 8605.141 1731.163 1246.876
8607.091 1771.512 1371.602 8685.849 1732.711
1389.090 8688.411 1773.863 1508.288 8766.344
1731.318 1529.431 8769.457 1771.258 1645.734
8846.945 1731.002 1669.445 8850.456 1768.389
1783.741 8927.620 1730.523 1811.003 8931.684
1767.928 1921.513 9008.247 1729.502 1951.794
9012.803 1766.754 2062.817 9089.397 1733.402
2101.204 9095.239 1776.476 2205.067 9170.686
1738.328 2247.751 9177.282 1783.030 2347.250
9251.968 1742.174 2388.416 9258.455 1782.884
2489.279 9333.240 1743.359 2535.585 9340.718
1784.848 2625.904 9413.624 1736.386 2676.189
9422.046 1774.163 2758.427 9493.212 1726.665
2820.217 9504.139 1765.364 2892.965 9572.976
1721.270 2958.212 9585.311 1755.571 3033.583
9653.583 1720.507 3111.132 9669.773 1760.023
3173.262 9733.650 1720.488 3250.358 9752.149
1762.155 3310.261 9812.617 1719.900 3382.538
9832.902 1761.549 3451.593 9892.298 1721.587
3529.488 9918.224 1770.988 3592.894 9971.626
1722.930 3649.806 9994.271 1763.528 3731.875
10049.566 1723.033 3782.434 10073.598 1762.366
3882.478 10133.510 1732.580 3944.319 10168.259
1783.969 4029.826 10217.132 1741.511 4087.681
10254.765 1792.403 4163.933 10292.389 1742.322
4220.311 10333.875 1794.123 4306.056 10373.469
1754.713 4352.967 10411.741 1801.972 4450.216
10457.117 1776.180 4492.104 10494.063 1823.563
4578.698 10527.149 1785.856 4661.369 10603.919
1883.498 4749.828 10637.295 1849.972 4785.252
10670.532 1896.745 4899.260 10726.257 1890.555
4938.854 10762.392 1943.539 5043.905 10809.802
1919.037 5073.748 10835.746 1956.431 5168.280
10876.254 1916.139 5201.481 10903.867 1953.200
5294.104 10945.059 1912.130 5331.978 10975.491
1950.075 5428.747 11021.534 1912.694 5466.021
11050.677 1948.936 5571.283 11104.300 1916.355
5606.557 11131.222 1953.550 5713.042 11186.453
1918.985 5749.554 11213.670 1962.179 5854.896
11268.656 1922.180 5892.822 11296.310 1970.680
5997.166 11351.120 1926.098 6032.841 11376.636
1971.769 476.285 7982.141 1710.573 477.497
7982.207 1746.100 615.979 8063.091 1711.239
618.247 8063.304 1747.360 755.554 8144.027
1714.456 759.496 8144.452 1752.167 894.846
8224.935 1717.446 900.513 8225.578 1752.900
1034.308 8305.867 1722.531 1043.595 8306.938
1763.682 1173.728 8386.798 1727.504 1185.302
8388.141 1765.954 1312.145 8467.614 1729.720
1327.859 8469.438 1770.664 1451.433 8548.532
1733.926 1473.934 8551.143 1780.116 1586.299
8628.939 1729.704 1610.307 8631.723 1769.491
1722.907 8709.546 1728.843 1752.216 8712.946
1769.742 1859.280 8790.117 1726.932 1889.596
8793.644 1764.154 1998.070 8870.956 1727.734
2032.682 8875.011 1766.190 2138.683 8951.990
1731.237 2178.283 8956.688 1771.157 2282.583
9033.411 1737.316 2330.755 9039.227 1781.862
2423.292 9114.448 1738.349 2475.514 9120.888
1782.906 2567.298 9195.907 1738.815 2619.712
9202.538 1778.833 2706.239 9276.735 1731.742
2755.381 9283.193 1763.702 2837.444 9356.469
1719.743 2903.370 9365.663 1755.614 2970.192
9436.177 1713.035 3058.213 9449.588 1752.590
3107.565 9516.140 1710.321 3202.550 9532.641
1753.060 3254.118 9597.520 1714.069 3336.480
9614.271 1753.331 3386.977 9675.715 1712.475
3464.306 9694.526 1751.483 3521.142 9753.121
1710.452 3591.581 9773.959 1749.385 3662.535
9831.753 1711.054 3735.256 9858.167 1756.143
3807.947 9911.638 1714.615 3865.842 9937.510
1754.357 3955.382 9992.939 1720.099 4012.693
10024.316 1763.815 4098.328 10072.547 1723.881
4146.053 10103.931 1764.178 4230.722 10144.721
1722.857 4279.488 10182.247 1766.498 4373.327
10224.560 1733.801 4420.934 10266.318 1781.231
4516.924 10306.744 1751.422 4557.048 10345.621
1797.341 4647.475 10376.696 1761.581 4750.519
10484.869 1887.307 4846.967 10521.380 1864.793
4879.486 10555.974 1908.067 4994.679 10607.677
1904.854 5028.448 10641.499 1949.639 5124.760
10675.673 1915.520 5156.033 10704.627 1953.385
5248.183 10739.886 1914.622 5284.648 10771.572
1953.172 5376.781 10810.318 1916.185 5416.620
10843.346 1953.775 5515.298 10889.610 1921.983
5547.154 10915.144 1951.130 5651.327 10967.122
1920.737 5680.735 10990.074 1949.533 5792.315
11048.644 1922.417 5827.488 11075.415 1960.779
5936.692 11132.709 1927.769 5971.653 11158.693
1968.808 6079.581 11215.588 1931.177 6113.151
11240.018 1970.358 555.618 7844.503 1710.949
556.976 7844.590 1744.974 695.230 7925.461
1711.178 697.490 7925.657 1742.827 834.724
8006.412 1714.034 838.958 8006.806 1749.407
973.841 8087.331 1716.240 979.939 8087.910
1748.954 1113.107 8168.270 1720.467 1121.917
8169.106 1753.605 1251.519 8249.132 1722.515
1263.420 8250.253 1756.278 1389.639 8329.973
1724.903 1406.196 8331.517 1762.551 1529.163
8410.948 1729.973 1554.130 8413.253 1775.528
1666.042 8491.683 1729.892 1694.722 8494.304
1772.701 1803.964 8572.514 1730.890 1837.151
8575.522 1773.422 1938.911 8653.077 1727.482
1972.528 8656.105 1765.881 2076.833 8733.896
1727.618 2115.445 8737.379 1767.680 2218.358
8815.018 1731.928 2263.438 8819.132 1774.113
2359.562 8896.093 1734.544 2405.901 8900.408
1773.541 2503.554 8977.429 1736.281 2562.838
8983.094 1781.415 2645.508 9058.590 1732.361
2707.033 9064.638 1774.092 2785.306 9139.562
1723.240 2851.869 9146.313 1761.582 2930.148
9221.097 1715.710 3001.286 9228.594 1750.006
3059.037 9300.787 1705.026 3143.080 9310.725
1741.045 3189.600 9379.986 1699.425 3279.955
9392.923 1739.997 3337.609 9461.567 1705.658
3431.588 9477.695 1748.605 3465.946 9539.320
1704.037 3547.626 9556.410 1742.500 3599.146
9616.779 1703.461 3680.269 9637.866 1744.281
3748.206 9697.918 1709.439 3829.280 9724.260
1754.111 3881.665 9773.335 1705.991 3954.366
9802.972 1750.229 4026.151 9851.832 1707.880
4091.270 9885.760 1753.258 4171.192 9930.876
1711.021 4225.293 9966.441 1754.537 4308.803
10005.310 1713.102 4357.857 10044.484 1756.107
4451.031 10083.829 1721.498 4492.520 10122.673
1762.779 4588.777 10158.675 1729.048 4627.349
10200.212 1774.506 4723.947 10229.048 1739.175
4827.817 10360.988 1879.904 4850.138 10294.843
1747.837 4953.242 10429.049 1893.836 5064.558
10465.200 1882.554 5094.366 10498.285 1922.904
5201.348 10537.417 1903.485 5235.650 10570.852
1944.484 5329.034 10604.304 1910.611 5370.701
10641.644 1953.460 5462.717 10678.499 1919.989
5496.998 10707.459 1951.418 5594.561 10752.051
1921.937 5625.088 10776.814 1948.961 5730.847
10829.672 1922.467 5762.967 10854.980 1952.320
5879.363 10916.924 1932.164 5911.271 10941.419
1964.755 6021.406 10999.083 1934.878 6052.994
11022.744 1969.393 6164.668 11082.133 1937.359
6195.039 11104.391 1970.403 635.143 7706.883
1715.468 637.115 7707.014 1758.719 774.858
7787.866 1716.034 778.319 7788.135 1759.275
913.669 7868.782 1712.119 918.135 7869.140
1745.549 1052.373 7949.694 1712.795 1058.193
7950.158 1740.363 1191.036 8030.611 1715.343
1198.859 8031.224 1740.777 1330.212 8111.573
1719.998 1341.979 8112.477 1748.500 1466.506
8192.326 1718.873 1482.211 8193.505 1749.622
1606.110 8273.335 1724.526 1628.345 8274.965
1760.608 1742.866 8354.146 1725.027 1771.300
8356.176 1763.561 1882.181 8435.149 1728.196
1918.440 8437.666 1771.679 2022.892 8516.247
1731.595 2067.415 8519.257 1779.928 2158.747
8597.004 1729.528 2210.834 8600.479 1781.162
2299.031 8678.032 1732.136 2344.536 8681.087
1772.773 2441.437 8759.173 1734.201 2495.746
8762.920 1777.218 2584.801 8840.374 1732.750
2645.876 8844.769 1776.183 2727.799 8921.570
1726.607 2786.823 8926.009 1764.136 2869.712
9002.734 1715.177 2935.244 9007.821 1749.792
3017.524 9084.437 1705.254 3080.997 9089.432
1733.045 3140.417 9163.869 1690.113 3218.360
9171.267 1724.836 3278.369 9244.294 1688.856
3362.662 9254.221 1727.244 3423.210 9325.552
1695.444 3515.336 9338.793 1737.590 3553.484
9404.336 1697.266 3643.107 9420.306 1738.899
3688.960 9483.102 1700.661 3789.810 9505.816
1749.251 3827.541 9561.820 1703.827 3921.961
9588.644 1751.863 3962.625 9638.673 1703.648
4046.240 9668.290 1748.514 4101.501 9713.775
1701.439 4184.019 9753.743 1753.988 4253.014
9795.267 1707.882 4311.414 9833.010 1752.099
4390.857 9869.555 1707.748 4437.973 9907.525
1747.962 4532.450 9948.042 1713.474 4577.430
9990.103 1756.941 4671.808 10025.975 1721.745
4711.267 10066.913 1765.746 4805.762 10092.671
1725.655 4842.334 10139.250 1775.349 4927.136
10149.852 1729.420 5024.989 10284.759 1867.361
5124.827 10306.783 1841.566 5162.356 10348.896
1891.596 5270.364 10389.938 1878.527 5315.592
10434.031 1931.528 5403.691 10462.646 1897.004
5452.414 10506.247 1946.171 5545.010 10543.500
1917.165 5587.558 10579.350 1955.754 5679.896
10619.404 1924.155 5714.090 10647.037 1953.995
5816.198 10696.880 1926.350 5850.498 10723.794
1957.116 5965.403 10784.479 1937.472 5996.221
10808.045 1967.417 6107.663 10866.644 1940.793
6135.406 10887.353 1969.543 6250.465 10949.219
1942.030 6277.372 10968.869 1969.994 714.486
7569.257 1715.977 716.805 7569.406 1760.714
854.040 7650.240 1715.810 857.976 7650.510
1759.735 993.482 7731.222 1717.057 999.375
7731.626 1757.139 1132.607 7812.186 1717.463
1139.778 7812.668 1748.243 1270.751 7893.096
1716.224 1280.111 7893.703 1743.190 1408.294
7973.980 1716.162 1421.098 7974.781 1742.981
1544.529 8054.801 1715.568 1560.976 8055.786
1743.215 1682.912 8135.771 1719.169 1702.337
8136.878 1746.749 1819.175 8216.645 1719.442
1849.909 8218.296 1756.943 1960.309 8297.799
1724.638 2003.231 8299.946 1772.295 2100.570
8378.908 1727.507 2148.499 8381.128 1776.831
2239.399 8459.933 1728.706 2289.260 8462.117
1776.494 2379.275 8540.963 1730.494 2430.366
8543.181 1774.881 2525.016 8622.203 1733.300
2581.171 8624.765 1776.324 2670.788 8703.449
1730.497 2738.961 8706.852 1777.339 2810.502
8784.417 1719.271 2869.807 8787.669 1755.773
2944.789 8865.099 1700.804 3004.187 8868.581
1730.058 3069.612 8945.131 1678.101 3138.329
8949.536 1708.591 3206.515 9025.512 1667.099
3286.521 9031.874 1704.743 3367.184 9108.061
1676.855 3456.718 9116.768 1718.699 3509.932
9189.263 1683.938 3600.389 9200.061 1726.330
3644.954 9269.358 1690.530 3742.004 9283.886
1736.359 3776.083 9348.119 1695.023 3875.871
9367.239 1742.975 3912.496 9427.056 1700.660
3997.366 9447.712 1742.412 4041.043 9502.556
1699.755 4132.524 9531.014 1745.920 4181.828
9577.668 1698.611 4268.923 9617.612 1752.177
4330.543 9656.765 1702.114 4394.988 9697.563
1749.682 4475.273 9736.023 1705.165 4527.693
9777.647 1749.417 4618.135 9817.281 1710.812
4662.867 9856.490 1751.933 4751.394 9893.960
1714.822 4799.842 9935.013 1760.589 4870.745
9955.700 1709.094 4919.838 9999.500 1759.464
4998.391 10016.875 1714.212 5119.089 10143.278
1854.026 5201.608 10163.892 1818.264 5251.198
10213.510 1878.894 5344.955 10246.689 1857.092
5398.669 10296.194 1917.822 5479.400 10321.524
1881.831 5544.346 10377.658 1946.131 5619.997
10402.122 1904.428 5678.166 10449.943 1956.720
5759.715 10482.167 1917.693 5800.939 10514.848
1953.152 5913.076 10572.872 1936.181 5950.286
10601.585 1968.525 6054.747 10654.365 1942.062
6083.480 10676.007 1968.853 6192.928 10733.338
1942.448 6217.591 10751.495 1967.046 6334.606
10814.990 1942.652 6358.648 10832.320 1966.963
793.857 7431.635 1717.500 796.302 7431.781
1758.517 933.309 7512.624 1717.481 937.128
7512.853 1755.286 1072.317 7593.593 1716.046
1077.871 7593.918 1750.371 1211.396 7674.575
1716.481 1218.194 7674.957 1743.274 1348.467
7755.457 1712.008 1357.461 7755.937 1735.588
1486.035 7836.391 1712.434 1500.474 7837.111
1739.295 1623.720 7917.355 1714.442 1640.442
7918.125 1738.868 1759.762 7998.280 1714.482
1778.866 7999.074 1738.159 1898.687 8079.368
1717.703 1930.136 8080.507 1751.951 2036.501
8160.458 1718.615 2078.594 8161.719 1760.984
2172.557 8241.545 1717.046 2225.288 8242.783
1767.818 2311.381 8322.689 1718.545 2362.204
8323.638 1765.595 2458.824 8403.894 1726.856
2517.724 8404.912 1776.915 2612.877 8485.145
1733.896 2668.876 8486.290 1775.973 2750.656
8566.062 1722.158 2810.688 8567.696 1762.135
2891.908 8647.065 1708.854 2950.630 8649.154
1742.704 3013.708 8727.286 1682.825 3067.602
8729.597 1707.536 3126.502 8806.745 1652.309
3190.389 8810.026 1682.092 3269.660 8887.395
1643.491 3345.194 8892.203 1679.668 3431.874
8969.540 1653.717 3518.718 8976.347 1695.017
3583.061 9051.275 1665.585 3664.517 9059.191
1704.793 3720.613 9131.717 1675.581 3813.468
9143.157 1720.460 3851.487 9210.701 1682.989
3939.858 9224.792 1726.110 3985.004 9289.150
1690.840 4087.408 9310.120 1740.878 4119.315
9365.112 1693.612 4214.282 9393.403 1745.006
4274.235 9446.189 1702.681 4348.354 9479.474
1750.121 4414.690 9522.017 1701.170 4472.007
9558.203 1744.953 4560.287 9602.482 1703.621
4609.200 9641.398 1746.591 4702.621 9684.048
1707.467 4756.623 9730.251 1757.591 4829.146
9756.041 1704.104 4883.502 9799.196 1753.429
4950.504 9820.099 1698.952 4999.787 9861.785
1747.630 5082.647 9890.522 1710.631 5211.501
10008.828 1845.568 5209.814 9960.317 1720.142
5335.721 10074.553 1861.954 5416.502 10101.326
1832.523 5477.429 10154.026 1898.676 5557.208
10182.270 1866.978 5617.699 10232.177 1925.920
5691.848 10258.375 1885.781 5744.562 10300.196
1932.436 5831.290 10338.495 1900.135 5875.444
10372.500 1937.000 5992.534 10435.059 1926.348
6026.718 10460.769 1954.976 6136.285 10518.111
1935.340 6163.153 10537.887 1959.362 6274.526
10597.167 1936.895 6297.884 10614.008 1959.262
6415.864 10678.554 1937.248 6438.413 10694.501
1959.221 873.269 7294.016 1719.184 876.201
7294.177 1760.790 1012.571 7375.008 1718.795
1017.244 7375.254 1759.227 1150.970 7455.962
1714.777 1157.919 7456.310 1753.445 1289.593
7536.939 1714.379 1297.885 7537.329 1744.479
1429.257 7617.979 1716.603 1439.562 7618.422
1741.681 1566.381 7698.935 1714.212 1577.321
7699.352 1732.803 1703.357 7779.926 1714.333
1718.694 7780.424 1734.348 1838.893 7860.939
1713.210 1857.354 7861.411 1733.621 1975.574
7942.072 1713.398 2005.902 7942.595 1743.120
2111.305 8023.301 1711.796 2155.771 8023.629
1752.516 2248.449 8104.638 1710.891 2303.429
8104.469 1760.120 2390.151 8185.904 1714.397
2448.057 8185.274 1765.410 2537.400 8266.917
1721.124 2598.379 8266.119 1771.520 2693.565
8347.707 1727.610 2750.031 8347.253 1769.499
2834.367 8428.665 1714.784 2887.043 8428.864
1748.576 2968.379 8509.505 1694.344 3018.537
8510.478 1720.653 3082.143 8589.739 1663.540
3124.342 8590.917 1682.806 3197.453 8669.716
1634.144 3255.530 8671.731 1661.639 3342.318
8750.325 1626.845 3421.092 8753.971 1664.190
3489.532 8831.117 1629.206 3561.088 8835.404
1663.199 3634.281 8911.825 1637.696 3710.130
8917.628 1674.804 3778.575 8992.454 1652.499
3857.674 9000.253 1691.426 3914.487 9071.856
1664.964 3997.247 9082.542 1705.660 4051.961
9150.305 1676.957 4178.152 9172.693 1740.780
4218.092 9233.537 1698.731 4294.514 9255.038
1743.507 4354.761 9309.249 1699.420 4422.747
9339.036 1746.051 4501.633 9388.844 1702.849
4561.532 9427.066 1752.396 4648.477 9471.395
1706.441 4690.950 9505.830 1746.782 4784.724
9548.651 1704.221 4834.030 9590.462 1751.441
4918.946 9624.206 1704.102 4962.674 9662.347
1747.562 5046.743 9694.223 1704.099 5090.068
9732.827 1748.851 5173.480 9764.453 1712.265
5215.283 9801.137 1754.798 5291.958 9828.607
1717.328 5409.485 9928.121 1838.827 5485.371
9954.773 1807.627 5538.486 9998.224 1861.979
5622.485 10033.327 1838.620 5680.244 10078.846
1893.511 5757.153 10110.090 1858.660 5810.478
10150.774 1904.527 5899.370 10192.601 1876.667
5945.639 10227.030 1913.794 6054.295 10284.267
1898.667 6102.958 10319.748 1937.675 6208.608
10375.110 1917.137 6239.279 10397.068 1943.351
6352.078 10458.030 1924.092 6376.488 10475.204
1946.339 6494.197 10540.003 1925.620 6517.200
10555.915 1946.720 952.776 7156.404 1720.645
956.484 7156.591 1764.006 1092.193 7237.410
1721.523 1097.953 7237.678 1764.434 1230.183
7318.361 1715.969 1238.903 7318.738 1759.233
1368.229 7399.335 1714.121 1380.500 7399.816
1755.155 1508.567 7480.418 1718.013 1521.794
7480.863 1747.968 1647.127 7561.463 1717.262
1661.492 7561.847 1739.774 1784.132 7642.517
1716.290 1800.562 7642.821 1735.971 1920.836
7723.655 1715.402 1939.539 7723.810 1734.462
2055.198 7804.921 1712.547 2090.114 7804.777
1744.077 2192.367 7886.354 1711.367 2241.302
7885.426 1752.995 2329.633 7967.906 1710.095
2384.323 7966.010 1755.731 2468.094 8049.365
1709.652 2524.078 8046.779 1755.714 2615.356
8130.142 1713.809 2672.225 8127.361 1759.066
2767.757 8210.476 1715.337 2823.925 8208.228
1756.672 2922.265 8290.988 1708.755 2968.634
8290.122 1737.373 3040.421 8371.841 1677.741
3093.109 8372.251 1703.536 3152.616 8452.721
1645.022 3205.778 8453.182 1670.252 3273.501
8533.239 1620.487 3335.552 8534.168 1649.781
3399.758 8613.138 1606.119 3483.224 8615.438
1644.765 3542.061 8693.262 1606.056 3622.791
8696.603 1643.707 3679.264 8773.090 1610.093
3760.967 8777.719 1649.635 3829.649 8853.595
1627.588 3937.101 8861.687 1680.684 3970.078
8933.064 1644.063 4146.142 8950.848 1730.747
4117.112 9011.378 1660.319 4267.106 9034.941
1742.532 4313.352 9100.458 1703.428 4379.251
9117.712 1745.267 4446.554 9177.095 1704.329
4502.927 9201.222 1746.851 4589.806 9256.568
1706.741 4637.358 9287.199 1750.249 4727.527
9333.508 1702.649 4771.298 9368.536 1746.692
4858.202 9404.929 1693.323 4906.118 9446.965
1742.421 4998.218 9484.206 1696.971 5039.162
9522.983 1741.175 5132.463 9561.334 1703.163
5177.901 9602.426 1750.871 5257.934 9632.585
1710.247 5304.730 9671.627 1755.948 5374.155
9696.690 1715.788 5485.775 9784.768 1821.044
5558.205 9812.319 1788.612 5612.491 9854.439
1839.778 5692.797 9889.229 1814.350 5739.872
9924.677 1856.085 5829.467 9967.805 1835.508
5884.238 10007.936 1880.250 5975.030 10052.748
1857.033 6033.769 10094.892 1901.990 6128.379
10142.979 1878.835 6177.664 10177.762 1916.578
6281.057 10232.468 1896.687 6315.701 10256.577
1925.056 6427.384 10317.407 1906.766 6454.152
10335.782 1930.101 6569.824 10399.647 1909.500
6594.439 10416.306 1930.868 1031.999 7018.776
1717.117 1036.480 7018.989 1759.766 1171.332
7099.786 1718.397 1177.801 7100.061 1759.690
1310.419 7180.795 1719.630 1320.446 7181.176
1763.620 1448.177 7261.776 1716.842 1462.809
7262.255 1761.352 1587.971 7342.854 1719.282
1603.401 7343.247 1751.193 1726.222 7423.931
1717.897 1744.098 7424.218 1743.521 1862.900